VARIABLES = "X" "Y" "Z" "A" "B" "C"
ZONE I=32, J=32, K=32,F=POINT 
0.000000 0.000000 0.000000 0.987422 0.012585 1.000007
0.000000 0.000000 0.023750 0.937725 0.062290 1.000015
0.000000 0.000000 0.047500 0.678791 0.321215 1.000006
0.000000 0.000000 0.071250 0.314473 0.685507 0.999980
0.000000 0.000000 0.095000 0.161282 0.838713 0.999995
0.000000 0.000000 0.118750 0.102302 0.897698 1.000000
0.000000 0.000000 0.142500 0.080769 0.919231 1.000000
0.000000 0.000000 0.166250 0.075510 0.924492 1.000002
0.000000 0.000000 0.190000 0.075280 0.924719 0.999999
0.000000 0.000000 0.213750 0.076063 0.923938 1.000001
0.000000 0.000000 0.237500 0.076644 0.923353 0.999997
0.000000 0.000000 0.261250 0.075411 0.924590 1.000001
0.000000 0.000000 0.285000 0.073618 0.926380 0.999998
0.000000 0.000000 0.308750 0.072118 0.927882 1.000000
0.000000 0.000000 0.332500 0.071337 0.928661 0.999998
0.000000 0.000000 0.356250 0.071074 0.928927 1.000001
0.000000 0.000000 0.380000 0.072096 0.927902 0.999998
0.000000 0.000000 0.403750 0.073181 0.926821 1.000002
0.000000 0.000000 0.427500 0.075394 0.924604 0.999998
0.000000 0.000000 0.451250 0.076509 0.923493 1.000002
0.000000 0.000000 0.475000 0.076408 0.923592 1.000000
0.000000 0.000000 0.498750 0.075354 0.924647 1.000001
0.000000 0.000000 0.522500 0.075747 0.924251 0.999998
0.000000 0.000000 0.546250 0.079990 0.920011 1.000001
0.000000 0.000000 0.570000 0.099956 0.900044 1.000000
0.000000 0.000000 0.593750 0.154108 0.845896 1.000004
0.000000 0.000000 0.617500 0.297454 0.702562 1.000016
0.000000 0.000000 0.641250 0.642358 0.357642 1.000000
0.000000 0.000000 0.665000 0.928394 0.071595 0.999989
0.000000 0.000000 0.688750 0.986105 0.013892 0.999997
0.000000 0.000000 0.712500 0.993717 0.006288 1.000005
0.000000 0.000000 0.736250 0.993865 0.006135 1.000000
0.000000 0.023750 0.000000 0.962934 0.037071 1.000005
0.000000 0.023750 0.023750 0.844418 0.155592 1.000010
0.000000 0.023750 0.047500 0.485318 0.514670 0.999988
0.000000 0.023750 0.071250 0.238683 0.761306 0.999989
0.000000 0.023750 0.095000 0.129428 0.870570 0.999998
0.000000 0.023750 0.118750 0.091704 0.908296 1.000000
0.000000 0.023750 0.142500 0.077485 0.922515 1.000000
0.000000 0.023750 0.166250 0.080020 0.919980 1.000000
0.000000 0.023750 0.190000 0.085335 0.914665 1.000000
0.000000 0.023750 0.213750 0.093681 0.906319 1.000000
0.000000 0.023750 0.237500 0.095860 0.904140 1.000000
0.000000 0.023750 0.261250 0.094966 0.905035 1.000001
0.000000 0.023750 0.285000 0.089064 0.910935 0.999999
0.000000 0.023750 0.308750 0.082277 0.917723 1.000000
0.000000 0.023750 0.332500 0.076452 0.923547 0.999999
0.000000 0.023750 0.356250 0.073564 0.926436 1.000000
0.000000 0.023750 0.380000 0.072930 0.927070 1.000000
0.000000 0.023750 0.403750 0.073725 0.926275 1.000000
0.000000 0.023750 0.427500 0.075571 0.924430 1.000001
0.000000 0.023750 0.451250 0.076523 0.923478 1.000001
0.000000 0.023750 0.475000 0.078125 0.921876 1.000001
0.000000 0.023750 0.498750 0.076730 0.923269 0.999999
0.000000 0.023750 0.522500 0.078341 0.921658 0.999999
0.000000 0.023750 0.546250 0.080545 0.919454 0.999999
0.000000 0.023750 0.570000 0.099963 0.900038 1.000001
0.000000 0.023750 0.593750 0.144303 0.855700 1.000003
0.000000 0.023750 0.617500 0.266858 0.733158 1.000016
0.000000 0.023750 0.641250 0.530631 0.469384 1.000015
0.000000 0.023750 0.665000 0.864342 0.135639 0.999981
0.000000 0.023750 0.688750 0.967579 0.032411 0.999990
0.000000 0.023750 0.712500 0.986031 0.013965 0.999996
0.000000 0.023750 0.736250 0.985326 0.014673 0.999999
0.000000 0.047500 0.000000 0.836696 0.163303 0.999999
0.000000 0.047500 0.023750 0.577621 0.422377 0.999998
0.000000 0.047500 0.047500 0.296195 0.703797 0.999992
0.000000 0.047500 0.071250 0.163605 0.836391 0.999996
0.000000 0.047500 0.095000 0.101461 0.898538 0.999999
0.000000 0.047500 0.118750 0.080385 0.919614 0.999999
0.000000 0.047500 0.142500 0.077184 0.922816 1.000000
0.000000 0.047500 0.166250 0.087203 0.912797 1.000000
0.000000 0.047500 0.190000 0.103625 0.896376 1.000001
0.000000 0.047500 0.213750 0.121113 0.878886 0.999999
0.000000 0.047500 0.237500 0.130611 0.869389 1.000000
0.000000 0.047500 0.261250 0.127263 0.872737 1.000000
0.000000 0.047500 0.285000 0.114286 0.885715 1.000001
0.000000 0.047500 0.308750 0.098993 0.901007 1.000000
0.000000 0.047500 0.332500 0.086293 0.913707 1.000000
0.000000 0.047500 0.356250 0.077989 0.922010 0.999999
0.000000 0.047500 0.380000 0.074889 0.925111 1.000000
0.000000 0.047500 0.403750 0.074771 0.925228 0.999999
0.000000 0.047500 0.427500 0.076900 0.923101 1.000001
0.000000 0.047500 0.451250 0.078717 0.921283 1.000000
0.000000 0.047500 0.475000 0.080618 0.919382 1.000000
0.000000 0.047500 0.498750 0.080349 0.919650 0.999999
0.000000 0.047500 0.522500 0.080990 0.919010 1.000000
0.000000 0.047500 0.546250 0.083546 0.916453 0.999999
0.000000 0.047500 0.570000 0.097773 0.902226 0.999999
0.000000 0.047500 0.593750 0.133092 0.866910 1.000002
0.000000 0.047500 0.617500 0.220024 0.779986 1.000010
0.000000 0.047500 0.641250 0.388993 0.611032 1.000025
0.000000 0.047500 0.665000 0.680996 0.319000 0.999996
0.000000 0.047500 0.688750 0.874520 0.125460 0.999980
0.000000 0.047500 0.712500 0.930388 0.069600 0.999988
0.000000 0.047500 0.736250 0.922692 0.077299 0.999991
0.000000 0.071250 0.000000 0.482481 0.517527 1.000008
0.000000 0.071250 0.023750 0.302795 0.697207 1.000002
0.000000 0.071250 0.047500 0.181310 0.818689 0.999999
0.000000 0.071250 0.071250 0.112845 0.887154 0.999999
0.000000 0.071250 0.095000 0.083993 0.916006 0.999999
0.000000 0.071250 0.118750 0.076664 0.923336 1.000000
0.000000 0.071250 0.142500 0.087772 0.912228 1.000000
0.000000 0.071250 0.166250 0.114433 0.885567 1.000000
0.000000 0.071250 0.190000 0.159533 0.840468 1.000001
0.000000 0.071250 0.213750 0.209612 0.790390 1.000002
0.000000 0.071250 0.237500 0.238798 0.761205 1.000003
0.000000 0.071250 0.261250 0.230451 0.769553 1.000004
0.000000 0.071250 0.285000 0.193103 0.806899 1.000002
0.000000 0.071250 0.308750 0.149367 0.850635 1.000002
0.000000 0.071250 0.332500 0.114573 0.885428 1.000001
0.000000 0.071250 0.356250 0.093485 0.906515 1.000000
0.000000 0.071250 0.380000 0.081865 0.918135 1.000000
0.000000 0.071250 0.403750 0.078453 0.921547 1.000000
0.000000 0.071250 0.427500 0.078695 0.921305 1.000000
0.000000 0.071250 0.451250 0.081345 0.918656 1.000001
0.000000 0.071250 0.475000 0.083063 0.916938 1.000001
0.000000 0.071250 0.498750 0.084192 0.915808 1.000000
0.000000 0.071250 0.522500 0.084035 0.915964 0.999999
0.000000 0.071250 0.546250 0.086462 0.913537 0.999999
0.000000 0.071250 0.570000 0.094975 0.905024 0.999999
0.000000 0.071250 0.593750 0.118753 0.881249 1.000002
0.000000 0.071250 0.617500 0.169026 0.830979 1.000005
0.000000 0.071250 0.641250 0.261927 0.738087 1.000014
0.000000 0.071250 0.665000 0.403875 0.596151 1.000026
0.000000 0.071250 0.688750 0.572177 0.427834 1.000011
0.000000 0.071250 0.712500 0.668131 0.331868 0.999999
0.000000 0.071250 0.736250 0.637512 0.362488 1.000000
0.000000 0.095000 0.000000 0.251329 0.748678 1.000007
0.000000 0.095000 0.023750 0.177066 0.822936 1.000002
0.000000 0.095000 0.047500 0.119124 0.880876 1.000000
0.000000 0.095000 0.071250 0.088145 0.911855 1.000000
0.000000 0.095000 0.095000 0.076721 0.923279 1.000000
0.000000 0.095000 0.118750 0.083822 0.916178 1.000000
0.000000 0.095000 0.142500 0.111559 0.888441 1.000000
0.000000 0.095000 0.166250 0.173712 0.826289 1.000001
0.000000 0.095000 0.190000 0.275801 0.724203 1.000004
0.000000 0.095000 0.213750 0.396324 0.603681 1.000005
0.000000 0.095000 0.237500 0.473755 0.526250 1.000005
0.000000 0.095000 0.261250 0.453157 0.546850 1.000007
0.000000 0.095000 0.285000 0.358420 0.641590 1.000010
0.000000 0.095000 0.308750 0.254477 0.745530 1.000007
0.000000 0.095000 0.332500 0.173892 0.826110 1.000002
0.000000 0.095000 0.356250 0.123037 0.876965 1.000002
0.000000 0.095000 0.380000 0.097056 0.902945 1.000001
0.000000 0.095000 0.403750 0.085419 0.914581 1.000000
0.000000 0.095000 0.427500 0.082876 0.917124 1.000000
0.000000 0.095000 0.451250 0.083922 0.916078 1.000000
0.000000 0.095000 0.475000 0.086567 0.913433 1.000000
0.000000 0.095000 0.498750 0.087750 0.912250 1.000000
0.000000 0.095000 0.522500 0.088426 0.911573 0.999999
0.000000 0.095000 0.546250 0.088966 0.911033 0.999999
0.000000 0.095000 0.570000 0.093624 0.906375 0.999999
0.000000 0.095000 0.593750 0.105467 0.894532 0.999999
0.000000 0.095000 0.617500 0.130810 0.869192 1.000002
0.000000 0.095000 0.641250 0.172316 0.827689 1.000005
0.000000 0.095000 0.665000 0.232572 0.767438 1.000010
0.000000 0.095000 0.688750 0.293638 0.706380 1.000018
0.000000 0.095000 0.712500 0.328504 0.671515 1.000019
0.000000 0.095000 0.736250 0.311775 0.688239 1.000014
0.000000 0.118750 0.000000 0.144858 0.855145 1.000003
0.000000 0.118750 0.023750 0.113946 0.886055 1.000001
0.000000 0.118750 0.047500 0.090297 0.909703 1.000000
0.000000 0.118750 0.071250 0.077408 0.922592 1.000000
0.000000 0.118750 0.095000 0.080630 0.919369 0.999999
0.000000 0.118750 0.118750 0.102993 0.897007 1.000000
0.000000 0.118750 0.142500 0.164789 0.835211 1.000000
0.000000 0.118750 0.166250 0.292372 0.707630 1.000002
0.000000 0.118750 0.190000 0.541405 0.458598 1.000003
0.000000 0.118750 0.213750 0.783062 0.216934 0.999996
0.000000 0.118750 0.237500 0.866047 0.133946 0.999993
0.000000 0.118750 0.261250 0.850627 0.149365 0.999992
0.000000 0.118750 0.285000 0.730665 0.269328 0.999993
0.000000 0.118750 0.308750 0.487049 0.512960 1.000009
0.000000 0.118750 0.332500 0.290485 0.709524 1.000009
0.000000 0.118750 0.356250 0.182946 0.817057 1.000003
0.000000 0.118750 0.380000 0.124667 0.875334 1.000001
0.000000 0.118750 0.403750 0.099384 0.900617 1.000001
0.000000 0.118750 0.427500 0.088946 0.911054 1.000000
0.000000 0.118750 0.451250 0.088125 0.911875 1.000000
0.000000 0.118750 0.475000 0.089263 0.910737 1.000000
0.000000 0.118750 0.498750 0.091509 0.908491 1.000000
0.000000 0.118750 0.522500 0.091530 0.908469 0.999999
0.000000 0.118750 0.546250 0.091601 0.908398 0.999999
0.000000 0.118750 0.570000 0.091770 0.908229 0.999999
0.000000 0.118750 0.593750 0.095814 0.904184 0.999998
0.000000 0.118750 0.617500 0.104364 0.895636 1.000000
0.000000 0.118750 0.641250 0.119531 0.880470 1.000001
0.000000 0.118750 0.665000 0.138987 0.861016 1.000003
0.000000 0.118750 0.688750 0.160605 0.839398 1.000003
0.000000 0.118750 0.712500 0.173698 0.826307 1.000005
0.000000 0.118750 0.736250 0.168685 0.831318 1.000003
0.000000 0.142500 0.000000 0.102467 0.897533 1.000000
0.000000 0.142500 0.023750 0.089691 0.910308 0.999999
0.000000 0.142500 0.047500 0.080159 0.919840 0.999999
0.000000 0.142500 0.071250 0.078476 0.921524 1.000000
0.000000 0.142500 0.095000 0.093686 0.906314 1.000000
0.000000 0.142500 0.118750 0.136713 0.863287 1.000000
0.000000 0.142500 0.142500 0.247130 0.752870 1.000000
0.000000 0.142500 0.166250 0.504327 0.495674 1.000001
0.000000 0.142500 0.190000 0.839833 0.160165 0.999998
0.000000 0.142500 0.213750 0.952262 0.047735 0.999997
0.000000 0.142500 0.237500 0.974797 0.025201 0.999998
0.000000 0.142500 0.261250 0.971739 0.028257 0.999996
0.000000 0.142500 0.285000 0.937080 0.062912 0.999992
0.000000 0.142500 0.308750 0.801876 0.198113 0.999989
0.000000 0.142500 0.332500 0.489889 0.510121 1.000010
0.000000 0.142500 0.356250 0.273660 0.726348 1.000008
0.000000 0.142500 0.380000 0.165212 0.834790 1.000002
0.000000 0.142500 0.403750 0.119045 0.880956 1.000001
0.000000 0.142500 0.427500 0.097137 0.902863 1.000000
0.000000 0.142500 0.451250 0.093459 0.906540 0.999999
0.000000 0.142500 0.475000 0.091895 0.908105 1.000000
0.000000 0.142500 0.498750 0.094858 0.905142 1.000000
0.000000 0.142500 0.522500 0.093654 0.906345 0.999999
0.000000 0.142500 0.546250 0.093707 0.906293 1.000000
0.000000 0.142500 0.570000 0.090975 0.909024 0.999999
0.000000 0.142500 0.593750 0.090763 0.909236 0.999999
0.000000 0.142500 0.617500 0.091118 0.908881 0.999999
0.000000 0.142500 0.641250 0.094948 0.905051 0.999999
0.000000 0.142500 0.665000 0.100847 0.899152 0.999999
0.000000 0.142500 0.688750 0.107003 0.892997 1.000000
0.000000 0.142500 0.712500 0.110963 0.889038 1.000001
0.000000 0.142500 0.736250 0.109565 0.890436 1.000001
0.000000 0.166250 0.000000 0.084028 0.915972 1.000000
0.000000 0.166250 0.023750 0.080206 0.919794 1.000000
0.000000 0.166250 0.047500 0.078153 0.921847 1.000000
0.000000 0.166250 0.071250 0.085618 0.914382 1.000000
0.000000 0.166250 0.095000 0.112236 0.887763 0.999999
0.000000 0.166250 0.118750 0.185365 0.814634 0.999999
0.000000 0.166250 0.142500 0.359477 0.640523 1.000000
0.000000 0.166250 0.166250 0.752919 0.247081 1.000000
0.000000 0.166250 0.190000 0.952164 0.047835 0.999999
0.000000 0.166250 0.213750 0.989144 0.010857 1.000001
0.000000 0.166250 0.237500 0.994434 0.005569 1.000003
0.000000 0.166250 0.261250 0.993802 0.006201 1.000003
0.000000 0.166250 0.285000 0.985515 0.014482 0.999997
0.000000 0.166250 0.308750 0.937906 0.062085 0.999991
0.000000 0.166250 0.332500 0.727468 0.272525 0.999993
0.000000 0.166250 0.356250 0.386453 0.613558 1.000011
0.000000 0.166250 0.380000 0.215853 0.784151 1.000004
0.000000 0.166250 0.403750 0.137813 0.862188 1.000001
0.000000 0.166250 0.427500 0.106549 0.893451 1.000000
0.000000 0.166250 0.451250 0.095832 0.904168 1.000000
0.000000 0.166250 0.475000 0.094244 0.905756 1.000000
0.000000 0.166250 0.498750 0.095007 0.904993 1.000000
0.000000 0.166250 0.522500 0.094825 0.905176 1.000001
0.000000 0.166250 0.546250 0.093462 0.906538 1.000000
0.000000 0.166250 0.570000 0.090331 0.909669 1.000000
0.000000 0.166250 0.593750 0.087613 0.912386 0.999999
0.000000 0.166250 0.617500 0.084680 0.915319 0.999999
0.000000 0.166250 0.641250 0.083807 0.916192 0.999999
0.000000 0.166250 0.665000 0.083275 0.916725 1.000000
0.000000 0.166250 0.688750 0.085557 0.914442 0.999999
0.000000 0.166250 0.712500 0.086901 0.913098 0.999999
0.000000 0.166250 0.736250 0.087314 0.912685 0.999999
0.000000 0.190000 0.000000 0.079753 0.920246 0.999999
0.000000 0.190000 0.023750 0.080352 0.919648 1.000000
0.000000 0.190000 0.047500 0.081858 0.918142 1.000000
0.000000 0.190000 0.071250 0.094643 0.905356 0.999999
0.000000 0.190000 0.095000 0.130560 0.869440 1.000000
0.000000 0.190000 0.118750 0.225975 0.774023 0.999998
0.000000 0.190000 0.142500 0.458558 0.541440 0.999998
0.000000 0.190000 0.166250 0.852694 0.147306 1.000000
0.000000 0.190000 0.190000 0.974773 0.025226 0.999999
0.000000 0.190000 0.213750 0.992224 0.007779 1.000003
0.000000 0.190000 0.237500 0.995396 0.004610 1.000006
0.000000 0.190000 0.261250 0.994892 0.005117 1.000009
0.000000 0.190000 0.285000 0.990826 0.009176 1.000002
0.000000 0.190000 0.308750 0.967265 0.032727 0.999992
0.000000 0.190000 0.332500 0.826511 0.173479 0.999990
0.000000 0.190000 0.356250 0.466635 0.533375 1.000010
0.000000 0.190000 0.380000 0.246609 0.753396 1.000005
0.000000 0.190000 0.403750 0.149230 0.850771 1.000001
0.000000 0.190000 0.427500 0.110789 0.889212 1.000001
0.000000 0.190000 0.451250 0.096996 0.903004 1.000000
0.000000 0.190000 0.475000 0.094334 0.905666 1.000000
0.000000 0.190000 0.498750 0.094252 0.905747 0.999999
0.000000 0.190000 0.522500 0.094098 0.905902 1.000000
0.000000 0.190000 0.546250 0.092640 0.907360 1.000000
0.000000 0.190000 0.570000 0.089864 0.910136 1.000000
0.000000 0.190000 0.593750 0.086637 0.913362 0.999999
0.000000 0.190000 0.617500 0.083341 0.916659 1.000000
0.000000 0.190000 0.641250 0.081004 0.918995 0.999999
0.000000 0.190000 0.665000 0.079918 0.920082 1.000000
0.000000 0.190000 0.688750 0.079238 0.920761 0.999999
0.000000 0.190000 0.712500 0.079178 0.920821 0.999999
0.000000 0.190000 0.736250 0.079539 0.920460 0.999999
0.000000 0.213750 0.000000 0.077930 0.922071 1.000001
0.000000 0.213750 0.023750 0.079089 0.920911 1.000000
0.000000 0.213750 0.047500 0.083526 0.916475 1.000001
0.000000 0.213750 0.071250 0.098534 0.901466 1.000000
0.000000 0.213750 0.095000 0.137591 0.862409 1.000000
0.000000 0.213750 0.118750 0.240295 0.759704 0.999999
0.000000 0.213750 0.142500 0.477716 0.522282 0.999998
0.000000 0.213750 0.166250 0.850709 0.149292 1.000001
0.000000 0.213750 0.190000 0.972790 0.027210 1.000000
0.000000 0.213750 0.213750 0.992234 0.007768 1.000002
0.000000 0.213750 0.237500 0.995658 0.004345 1.000003
0.000000 0.213750 0.261250 0.995136 0.004868 1.000004
0.000000 0.213750 0.285000 0.990178 0.009822 1.000000
0.000000 0.213750 0.308750 0.961790 0.038203 0.999993
0.000000 0.213750 0.332500 0.811540 0.188451 0.999991
0.000000 0.213750 0.356250 0.457579 0.542430 1.000009
0.000000 0.213750 0.380000 0.242844 0.757160 1.000004
0.000000 0.213750 0.403750 0.146012 0.853989 1.000001
0.000000 0.213750 0.427500 0.108424 0.891576 1.000000
0.000000 0.213750 0.451250 0.094889 0.905110 0.999999
0.000000 0.213750 0.475000 0.092054 0.907946 1.000000
0.000000 0.213750 0.498750 0.091975 0.908024 0.999999
0.000000 0.213750 0.522500 0.092030 0.907970 1.000000
0.000000 0.213750 0.546250 0.091246 0.908753 0.999999
0.000000 0.213750 0.570000 0.089147 0.910854 1.000001
0.000000 0.213750 0.593750 0.086586 0.913413 0.999999
0.000000 0.213750 0.617500 0.083305 0.916695 1.000000
0.000000 0.213750 0.641250 0.080754 0.919245 0.999999
0.000000 0.213750 0.665000 0.078290 0.921710 1.000000
0.000000 0.213750 0.688750 0.078060 0.921940 1.000000
0.000000 0.213750 0.712500 0.078071 0.921929 1.000000
0.000000 0.213750 0.736250 0.078668 0.921331 0.999999
0.000000 0.237500 0.000000 0.079883 0.920117 1.000000
0.000000 0.237500 0.023750 0.080948 0.919052 1.000000
0.000000 0.237500 0.047500 0.084589 0.915412 1.000001
0.000000 0.237500 0.071250 0.096802 0.903198 1.000000
0.000000 0.237500 0.095000 0.131236 0.868764 1.000000
0.000000 0.237500 0.118750 0.213364 0.786635 0.999999
0.000000 0.237500 0.142500 0.395163 0.604835 0.999998
0.000000 0.237500 0.166250 0.726220 0.273780 1.000000
0.000000 0.237500 0.190000 0.919622 0.080379 1.000001
0.000000 0.237500 0.213750 0.970125 0.029876 1.000001
0.000000 0.237500 0.237500 0.980781 0.019221 1.000002
0.000000 0.237500 0.261250 0.979219 0.020781 1.000000
0.000000 0.237500 0.285000 0.962324 0.037674 0.999998
0.000000 0.237500 0.308750 0.891097 0.108895 0.999992
0.000000 0.237500 0.332500 0.658701 0.341298 0.999999
0.000000 0.237500 0.356250 0.361946 0.638062 1.000008
0.000000 0.237500 0.380000 0.203034 0.796969 1.000003
0.000000 0.237500 0.403750 0.131695 0.868305 1.000000
0.000000 0.237500 0.427500 0.101273 0.898727 1.000000
0.000000 0.237500 0.451250 0.091842 0.908157 0.999999
0.000000 0.237500 0.475000 0.089010 0.910990 1.000000
0.000000 0.237500 0.498750 0.089798 0.910201 0.999999
0.000000 0.237500 0.522500 0.089995 0.910005 1.000000
0.000000 0.237500 0.546250 0.090580 0.909420 1.000000
0.000000 0.237500 0.570000 0.089548 0.910452 1.000000
0.000000 0.237500 0.593750 0.088068 0.911932 1.000000
0.000000 0.237500 0.617500 0.085660 0.914340 1.000000
0.000000 0.237500 0.641250 0.083500 0.916500 1.000000
0.000000 0.237500 0.665000 0.081831 0.918169 1.000000
0.000000 0.237500 0.688750 0.080130 0.919869 0.999999
0.000000 0.237500 0.712500 0.079159 0.920841 1.000000
0.000000 0.237500 0.736250 0.078804 0.921196 1.000000
0.000000 0.261250 0.000000 0.079989 0.920012 1.000001
0.000000 0.261250 0.023750 0.079773 0.920228 1.000001
0.000000 0.261250 0.047500 0.083660 0.916340 1.000000
0.000000 0.261250 0.071250 0.091748 0.908252 1.000000
0.000000 0.261250 0.095000 0.116141 0.883859 1.000000
0.000000 0.261250 0.118750 0.168826 0.831174 1.000000
0.000000 0.261250 0.142500 0.277055 0.722943 0.999998
0.000000 0.261250 0.166250 0.459469 0.540529 0.999998
0.000000 0.261250 0.190000 0.694495 0.305506 1.000001
0.000000 0.261250 0.213750 0.834612 0.165390 1.000002
0.000000 0.261250 0.237500 0.878973 0.121027 1.000000
0.000000 0.261250 0.261250 0.870964 0.129034 0.999998
0.000000 0.261250 0.285000 0.802512 0.197485 0.999997
0.000000 0.261250 0.308750 0.630030 0.369970 1.000000
0.000000 0.261250 0.332500 0.403662 0.596346 1.000008
0.000000 0.261250 0.356250 0.250124 0.749880 1.000004
0.000000 0.261250 0.380000 0.157292 0.842709 1.000001
0.000000 0.261250 0.403750 0.113757 0.886243 1.000000
0.000000 0.261250 0.427500 0.093249 0.906751 1.000000
0.000000 0.261250 0.451250 0.088062 0.911937 0.999999
0.000000 0.261250 0.475000 0.085864 0.914136 1.000000
0.000000 0.261250 0.498750 0.087734 0.912266 1.000000
0.000000 0.261250 0.522500 0.088470 0.911530 1.000000
0.000000 0.261250 0.546250 0.090431 0.909570 1.000001
0.000000 0.261250 0.570000 0.090482 0.909518 1.000000
0.000000 0.261250 0.593750 0.090550 0.909450 1.000000
0.000000 0.261250 0.617500 0.088826 0.911174 1.000000
0.000000 0.261250 0.641250 0.087076 0.912924 1.000000
0.000000 0.261250 0.665000 0.084469 0.915532 1.000001
0.000000 0.261250 0.688750 0.082968 0.917032 1.000000
0.000000 0.261250 0.712500 0.081923 0.918078 1.000001
0.000000 0.261250 0.736250 0.080809 0.919192 1.000001
0.000000 0.285000 0.000000 0.081830 0.918170 1.000000
0.000000 0.285000 0.023750 0.081814 0.918186 1.000000
0.000000 0.285000 0.047500 0.082896 0.917105 1.000001
0.000000 0.285000 0.071250 0.087622 0.912378 1.000000
0.000000 0.285000 0.095000 0.100799 0.899201 1.000000
0.000000 0.285000 0.118750 0.127392 0.872608 1.000000
0.000000 0.285000 0.142500 0.176180 0.823819 0.999999
0.000000 0.285000 0.166250 0.242891 0.757107 0.999998
0.000000 0.285000 0.190000 0.311017 0.688980 0.999997
0.000000 0.285000 0.213750 0.371639 0.628360 0.999999
0.000000 0.285000 0.237500 0.404619 0.595381 1.000000
0.000000 0.285000 0.261250 0.397888 0.602114 1.000002
0.000000 0.285000 0.285000 0.352862 0.647141 1.000003
0.000000 0.285000 0.308750 0.290894 0.709110 1.000004
0.000000 0.285000 0.332500 0.223315 0.776688 1.000003
0.000000 0.285000 0.356250 0.162316 0.837686 1.000002
0.000000 0.285000 0.380000 0.120588 0.879412 1.000000
0.000000 0.285000 0.403750 0.098074 0.901925 0.999999
0.000000 0.285000 0.427500 0.087851 0.912149 1.000000
0.000000 0.285000 0.451250 0.084820 0.915180 1.000000
0.000000 0.285000 0.475000 0.084662 0.915338 1.000000
0.000000 0.285000 0.498750 0.086202 0.913798 1.000000
0.000000 0.285000 0.522500 0.088479 0.911521 1.000000
0.000000 0.285000 0.546250 0.090727 0.909273 1.000000
0.000000 0.285000 0.570000 0.092818 0.907182 1.000000
0.000000 0.285000 0.593750 0.092522 0.907478 1.000000
0.000000 0.285000 0.617500 0.091365 0.908635 1.000000
0.000000 0.285000 0.641250 0.090310 0.909689 0.999999
0.000000 0.285000 0.665000 0.089528 0.910472 1.000000
0.000000 0.285000 0.688750 0.087054 0.912946 1.000000
0.000000 0.285000 0.712500 0.084212 0.915788 1.000000
0.000000 0.285000 0.736250 0.082370 0.917630 1.000000
0.000000 0.308750 0.000000 0.082218 0.917783 1.000001
0.000000 0.308750 0.023750 0.080908 0.919092 1.000000
0.000000 0.308750 0.047500 0.081937 0.918064 1.000001
0.000000 0.308750 0.071250 0.083847 0.916153 1.000000
0.000000 0.308750 0.095000 0.089569 0.910432 1.000001
0.000000 0.308750 0.118750 0.099983 0.900017 1.000000
0.000000 0.308750 0.142500 0.115725 0.884275 1.000000
0.000000 0.308750 0.166250 0.134166 0.865833 0.999999
0.000000 0.308750 0.190000 0.155207 0.844793 1.000000
0.000000 0.308750 0.213750 0.169575 0.830424 0.999999
0.000000 0.308750 0.237500 0.176105 0.823894 0.999999
0.000000 0.308750 0.261250 0.174664 0.825336 1.000000
0.000000 0.308750 0.285000 0.166036 0.833965 1.000001
0.000000 0.308750 0.308750 0.148805 0.851195 1.000000
0.000000 0.308750 0.332500 0.127752 0.872249 1.000001
0.000000 0.308750 0.356250 0.111092 0.888908 1.000000
0.000000 0.308750 0.380000 0.096887 0.903113 1.000000
0.000000 0.308750 0.403750 0.088269 0.911731 1.000000
0.000000 0.308750 0.427500 0.083558 0.916442 1.000000
0.000000 0.308750 0.451250 0.083089 0.916911 1.000000
0.000000 0.308750 0.475000 0.083446 0.916554 1.000000
0.000000 0.308750 0.498750 0.085849 0.914151 1.000000
0.000000 0.308750 0.522500 0.088509 0.911491 1.000000
0.000000 0.308750 0.546250 0.091933 0.908067 1.000000
0.000000 0.308750 0.570000 0.092766 0.907234 1.000000
0.000000 0.308750 0.593750 0.091838 0.908162 1.000000
0.000000 0.308750 0.617500 0.091420 0.908580 1.000000
0.000000 0.308750 0.641250 0.090448 0.909553 1.000001
0.000000 0.308750 0.665000 0.089152 0.910848 1.000000
0.000000 0.308750 0.688750 0.089566 0.910434 1.000000
0.000000 0.308750 0.712500 0.087231 0.912769 1.000000
0.000000 0.308750 0.736250 0.084409 0.915592 1.000001
0.000000 0.332500 0.000000 0.083881 0.916119 1.000000
0.000000 0.332500 0.023750 0.082825 0.917175 1.000000
0.000000 0.332500 0.047500 0.082185 0.917816 1.000001
0.000000 0.332500 0.071250 0.082457 0.917543 1.000000
0.000000 0.332500 0.095000 0.083604 0.916396 1.000000
0.000000 0.332500 0.118750 0.085493 0.914507 1.000000
0.000000 0.332500 0.142500 0.088710 0.911290 1.000000
0.000000 0.332500 0.166250 0.091636 0.908364 1.000000
0.000000 0.332500 0.190000 0.091452 0.908547 0.999999
0.000000 0.332500 0.213750 0.092981 0.907018 0.999999
0.000000 0.332500 0.237500 0.093784 0.906215 0.999999
0.000000 0.332500 0.261250 0.093618 0.906381 0.999999
0.000000 0.332500 0.285000 0.091922 0.908078 1.000000
0.000000 0.332500 0.308750 0.090741 0.909259 1.000000
0.000000 0.332500 0.332500 0.089898 0.910101 0.999999
0.000000 0.332500 0.356250 0.086226 0.913773 0.999999
0.000000 0.332500 0.380000 0.084079 0.915920 0.999999
0.000000 0.332500 0.403750 0.082807 0.917193 1.000000
0.000000 0.332500 0.427500 0.082014 0.917986 1.000000
0.000000 0.332500 0.451250 0.082306 0.917694 1.000000
0.000000 0.332500 0.475000 0.083644 0.916355 0.999999
0.000000 0.332500 0.498750 0.085872 0.914128 1.000000
0.000000 0.332500 0.522500 0.089369 0.910631 1.000000
0.000000 0.332500 0.546250 0.092554 0.907446 1.000000
0.000000 0.332500 0.570000 0.092297 0.907703 1.000000
0.000000 0.332500 0.593750 0.093489 0.906511 1.000000
0.000000 0.332500 0.617500 0.093943 0.906057 1.000000
0.000000 0.332500 0.641250 0.093280 0.906720 1.000000
0.000000 0.332500 0.665000 0.091189 0.908812 1.000001
0.000000 0.332500 0.688750 0.089999 0.910001 1.000000
0.000000 0.332500 0.712500 0.088976 0.911024 1.000000
0.000000 0.332500 0.736250 0.085496 0.914504 1.000000
0.000000 0.356250 0.000000 0.083302 0.916699 1.000001
0.000000 0.356250 0.023750 0.081722 0.918278 1.000000
0.000000 0.356250 0.047500 0.081569 0.918431 1.000000
0.000000 0.356250 0.071250 0.081573 0.918427 1.000000
0.000000 0.356250 0.095000 0.081570 0.918430 1.000000
0.000000 0.356250 0.118750 0.081542 0.918458 1.000000
0.000000 0.356250 0.142500 0.080472 0.919527 0.999999
0.000000 0.356250 0.166250 0.079085 0.920914 0.999999
0.000000 0.356250 0.190000 0.080018 0.919982 1.000000
0.000000 0.356250 0.213750 0.078768 0.921232 1.000000
0.000000 0.356250 0.237500 0.077869 0.922131 1.000000
0.000000 0.356250 0.261250 0.077684 0.922316 1.000000
0.000000 0.356250 0.285000 0.078667 0.921333 1.000000
0.000000 0.356250 0.308750 0.078077 0.921922 0.999999
0.000000 0.356250 0.332500 0.077264 0.922735 0.999999
0.000000 0.356250 0.356250 0.079195 0.920805 1.000000
0.000000 0.356250 0.380000 0.080136 0.919863 0.999999
0.000000 0.356250 0.403750 0.081257 0.918742 0.999999
0.000000 0.356250 0.427500 0.081223 0.918777 1.000000
0.000000 0.356250 0.451250 0.082051 0.917948 0.999999
0.000000 0.356250 0.475000 0.083467 0.916533 1.000000
0.000000 0.356250 0.498750 0.085952 0.914048 1.000000
0.000000 0.356250 0.522500 0.089642 0.910358 1.000000
0.000000 0.356250 0.546250 0.092430 0.907570 1.000000
0.000000 0.356250 0.570000 0.092335 0.907664 0.999999
0.000000 0.356250 0.593750 0.093899 0.906101 1.000000
0.000000 0.356250 0.617500 0.093344 0.906656 1.000000
0.000000 0.356250 0.641250 0.093127 0.906873 1.000000
0.000000 0.356250 0.665000 0.091104 0.908896 1.000000
0.000000 0.356250 0.688750 0.089960 0.910040 1.000000
0.000000 0.356250 0.712500 0.089426 0.910574 1.000000
0.000000 0.356250 0.736250 0.086432 0.913569 1.000001
0.000000 0.380000 0.000000 0.083684 0.916315 0.999999
0.000000 0.380000 0.023750 0.082603 0.917397 1.000000
0.000000 0.380000 0.047500 0.081992 0.918008 1.000000
0.000000 0.380000 0.071250 0.082397 0.917603 1.000000
0.000000 0.380000 0.095000 0.083799 0.916200 0.999999
0.000000 0.380000 0.118750 0.086076 0.913924 1.000000
0.000000 0.380000 0.142500 0.089668 0.910332 1.000000
0.000000 0.380000 0.166250 0.092830 0.907170 1.000000
0.000000 0.380000 0.190000 0.092586 0.907414 1.000000
0.000000 0.380000 0.213750 0.093962 0.906037 0.999999
0.000000 0.380000 0.237500 0.094330 0.905669 0.999999
0.000000 0.380000 0.261250 0.093714 0.906286 1.000000
0.000000 0.380000 0.285000 0.091530 0.908470 1.000000
0.000000 0.380000 0.308750 0.090165 0.909835 1.000000
0.000000 0.380000 0.332500 0.089135 0.910865 1.000000
0.000000 0.380000 0.356250 0.085579 0.914421 1.000000
0.000000 0.380000 0.380000 0.083740 0.916259 0.999999
0.000000 0.380000 0.403750 0.082626 0.917374 1.000000
0.000000 0.380000 0.427500 0.082009 0.917991 1.000000
0.000000 0.380000 0.451250 0.082409 0.917590 0.999999
0.000000 0.380000 0.475000 0.083781 0.916218 0.999999
0.000000 0.380000 0.498750 0.086022 0.913977 0.999999
0.000000 0.380000 0.522500 0.089546 0.910454 1.000000
0.000000 0.380000 0.546250 0.092673 0.907327 1.000000
0.000000 0.380000 0.570000 0.092398 0.907602 1.000000
0.000000 0.380000 0.593750 0.093715 0.906285 1.000000
0.000000 0.380000 0.617500 0.094090 0.905909 0.999999
0.000000 0.380000 0.641250 0.093476 0.906523 0.999999
0.000000 0.380000 0.665000 0.091329 0.908671 1.000000
0.000000 0.380000 0.688750 0.090002 0.909997 0.999999
0.000000 0.380000 0.712500 0.088988 0.911011 0.999999
0.000000 0.380000 0.736250 0.085464 0.914536 1.000000