ITEM: TIMESTEP
100000000
ITEM: NUMBER OF ATOMS
2500
ITEM: BOX BOUNDS pp pp pp
-1.2500000000000000e+02 1.2500000000000000e+02
0.0000000000000000e+00 5.0000000000000000e+01
0.0000000000000000e+00 5.0000000000000000e+01
ITEM: ATOMS id type x y z
1 3 -22.2994 34.2226 10.4937
2 3 -21.9398 37.4793 13.5245
3 3 -24.2095 35.4602 16.8617
4 3 -25.599 37.1531 13.0007
5 3 -29.4833 35.7408 13.2872
6 3 -26.8346 35.1502 9.90761
7 3 -25.7313 37.0986 13.8169
8 1 -26.6898 32.4136 14.4918
9 3 -23.096 30.0086 14.2775
10 3 -23.2362 25.2839 12.887
11 3 -22.4484 23.3715 9.09221
12 3 -23.1341 21.7868 12.7269
13 3 -26.0598 19.2114 10.637
14 3 -27.1289 23.5564 9.23916
15 3 -22.8168 24.7198 10.6612
16 1 -24.3474 28.3434 11.8894
17 3 -22.4408 32.249 11.073
18 3 -21.6522 27.7259 11.4379
19 3 -23.1209 30.1343 15.5067
20 3 -20.3439 29.3422 11.6172
21 3 -19.028 26.407 8.07817
22 3 -18.4999 30.64 8.84419
23 3 -16.288 26.4349 8.70405
24 1 -20.1934 27.1122 9.99369
25 3 -16.401 24.8876 7.93652
26 3 -20.8196 25.5736 10.6512
27 3 -20.2424 22.7526 7.37127
28 3 -19.2072 26.4378 4.29236
29 3 -20.1567 22.5108 1.16087
30 3 -22.5167 23.144 5.15713
31 3 -21.0849 22.9265 9.37594
32 2 -20.757 26.8647 10.1602
33 3 -17.1015 27.5983 12.7745
34 3 -12.9118 26.5935 12.8219
35 3 -10.1807 22.8954 12.8833
36 3 -14.2066 20.655 12.68
37 3 -13.5665 16.0518 12.942
38 3 -13.9517 20.7995 13.3543
39 3 -11.9539 16.7094 12.6385
40 2 -16.4068 17.6026 12.6885
41 3 -20.5844 19.0282 13.716
42 3 -17.7044 15.9058 11.2174
43 3 -13.161 17.1874 12.6161
44 3 -15.2234 13.6286 11.3187
45 3 -11.875 10.0317 11.2217
46 3 -11.8373 12.8778 7.61056
47 3 -12.076 10.9629 11.1862
48 2 -12.5606 9.12421 7.25098
49 3 -16.3976 7.34608 7.34706
50 3 -18.2422 11.9126 7.9108
51 3 6.11248 26.0205 11.5178
52 3 1.50307 25.6675 11.4127
53 3 4.37179 24.3283 7.8902
54 3 0.427832 23.3842 8.25523
55 3 -4.02473 22.4774 9.82038
56 3 -2.08404 20.7012 6.98054
57 3 1.22049 17.1864 6.5522
58 1 -0.431201 20.7447 3.38299
59 3 0.409332 21.4172 49.753
60 3 -1.88425 17.4841 49.5006
61 3 -5.31109 18.2754 45.8047
62 3 -7.95529 20.9794 48.2966
63 3 -8.34186 22.9684 2.56038
64 3 -6.67109 24.5611 6.52526
65 3 -8.44712 26.2366 10.4255
66 1 -4.48043 28.4384 12.0714
67 3 -4.16725 24.6056 10.1437
68 3 -4.54251 20.0565 9.73626
69 3 -3.80196 20.3624 13.9004
70 3 -6.81972 21.176 10.9433
71 3 -9.18 18.0177 13.1003
72 3 -7.49133 20.33 10.5454
73 3 -4.54397 23.362 11.9952
74 1 -2.64678 22.6439 7.2086
75 3 -5.64842 21.1777 10.5483
76 3 -2.81631 20.4848 7.21099
77 3 -4.04131 16.9176 5.13453
78 3 -1.84533 17.161 10.1527
79 3 1.52051 14.8284 11.9328
80 3 -2.54116 14.7582 13.1125
81 3 -3.0507 15.8869 17.8313
82 2 0.24463 15.3862 15.3174
83 3 3.55867 18.8168 15.9015
84 3 0.784052 16.3675 13.8422
85 3 3.02912 20.2137 14.0972
86 3 2.87886 24.7769 13.3099
87 3 1.41795 28.0321 11.5401
88 3 4.42638 27.2954 8.88079
89 3 6.46327 30.7436 6.66443
90 2 4.11959 30.6837 10.7931
91 3 0.847577 28.0428 8.07138
92 3 -2.24501 28.8874 11.619
93 3 -4.7232 27.7875 15.235
94 3 -1.22013 29.4114 13.491
95 3 3.017 28.8205 12.0197
96 3 0.444684 30.8795 14.3664
97 3 2.75279 35.1762 13.3134
98 2 0.237156 32.3588 11.6892
99 3 0.67212 30.5763 15.7128
100 3 3.20288 26.8449 16.2745
101 3 -11.9841 22.6379 29.6604
102 3 -8.5714 25.4068 30.9666
103 3 -9.7244 22.0188 33.1457
104 3 -6.8699 24.0801 36.6643
105 3 -4.15495 23.3849 32.9126
106 3 -7.56005 21.405 35.4733
107 3 -9.97011 21.4932 32.0481
108 1 -7.76666 21.0753 28.1423
109 3 -4.24842 24.2375 28.4137
110 3 -7.06166 27.3223 27.4378
111 3 -6.22782 28.2739 22.355
112 3 -4.31262 26.4078 19.4046
113 3 -0.687251 29.0489 20.7493
114 3 -2.41828 29.0579 16.8512
115 3 -3.21251 29.1476 11.9845
116 1 0.347599 32.227 11.8834
117 3 1.48266 31.1236 7.6386
118 3 -1.71988 29.0539 7.60557
119 3 -3.93642 25.4941 8.70547
120 3 -4.1426 25.6686 13.3269
121 3 -4.81654 30.1038 14.0789
122 3 -9.6995 28.728 14.3768
123 3 -6.98282 31.2584 16.9895
124 1 -7.76541 27.5156 14.4999
125 3 -4.92605 29.5653 17.212
126 3 -8.29795 30.2806 14.0897
127 3 -6.83123 29.8075 18.1865
128 3 -3.98638 30.3338 14.3149
129 3 -4.22414 28.4085 18.1982
130 3 -8.94394 28.0446 17.7888
131 3 -13.9602 27.9655 17.4755
132 2 -10.9276 30.8595 18.4198
133 3 -12.4115 31.0159 13.7995
134 3 -8.80676 32.245 11.1898
135 3 -4.13182 31.2372 12.8141
136 3 -8.0797 33.5899 13.8891
137 3 -8.39387 35.7405 16.9524
138 3 -4.16193 36.1404 15.782
139 3 -2.85982 36.3491 19.9206
140 2 -6.886 38.6998 20.3858
141 3 -8.93045 42.9539 21.0924
142 3 -10.078 40.0517 17.419
143 3 -10.0648 37.1098 14.2518
144 3 -10.699 39.2754 10.9172
145 3 -9.59811 34.9008 9.94628
146 3 -9.59756 29.81 9.78215
147 3 -7.32083 32.9532 12.1837
148 2 -11.544 33.8157 11.038
149 3 -13.7722 33.2617 14.4644
150 3 -13.09 33.1808 18.3231
151 3 -8.24569 48.019 48.993
152 3 -10.6523 48.6947 45.5459
153 3 -11.2395 48.7819 49.1129
154 3 -9.1778 0.306044 2.63362
155 3 -13.8418 0.175586 2.27931
156 3 -9.57989 49.2971 2.04982
157 3 -13.4848 49.0518 3.60291
158 1 -16.3434 2.81391 2.95481
159 3 -16.3303 0.875859 7.1664
160 3 -11.8566 1.10429 6.99784
161 3 -12.1333 46.954 9.18495
162 3 -12.7988 49.25 13.616
163 3 -13.1875 47.3767 18.1858
164 3 -8.96014 47.6398 19.5058
165 3 -6.60608 47.8538 15.1413
166 1 -10.6115 46.6504 16.6057
167 3 -6.57772 49.0258 15.1901
168 3 -8.0481 1.09365 11.0491
169 3 -5.01349 47.6652 11.9809
170 3 -7.87345 49.5937 8.7556
171 3 -6.26539 46.2807 12.5475
172 3 -2.08881 47.9021 13.5559
173 3 -2.14029 2.49804 15.8644
174 1 -1.05156 49.7638 19.3775
175 3 0.538946 46.0448 18.8468
176 3 2.91386 48.2802 15.3779
177 3 6.14883 0.690732 17.6505
178 3 8.76487 46.9708 18.2489
179 3 5.68869 46.2528 14.5026
180 3 8.72608 46.1228 11.45
181 3 9.95737 45.2637 15.167
182 2 7.07506 44.4598 18.3736
183 3 9.14241 43.7306 14.6396
184 3 7.40028 46.9959 17.5622
185 3 8.55006 0.749185 19.3283
186 3 4.75347 49.3125 20.6825
187 3 6.37148 1.57113 24.3179
188 3 7.00769 3.59301 20.2837
189 3 5.79951 7.41174 18.1093
190 2 6.16932 8.55526 14.5965
191 3 4.94607 4.42006 14.4208
192 3 6.14147 8.22686 15.7917
193 3 3.07855 8.06399 19.0893
194 3 -2.14164 8.38305 18.2824
195 3 -1.52884 5.24433 21.5757
196 3 1.48671 1.92195 22.4318
197 3 5.87265 1.96163 24.0129
198 2 9.91309 49.5278 23.4575
199 3 6.03004 2.50934 23.1756
200 3 8.37449 48.49 23.5648
201 3 -3.12956 45.8424 40.2112
202 3 -3.01113 45.1331 44.2499
203 3 -5.49374 46.2026 48.4971
204 3 -9.08068 48.3799 1.33971
205 3 -13.5038 48.4567 0.163792
206 3 -8.99545 0.189437 1.05509
207 3 -8.29262 48.3949 47.2161
208 1 -10.9747 0.846352 0.236538
209 3 -8.12651 46.4879 1.04914
210 3 -5.92199 45.0986 47.3916
211 3 -3.73021 41.3138 47.4296
212 3 -0.208498 39.9589 49.9276
213 3 -2.53691 43.2971 47.6728
214 3 -3.53098 39.1646 46.4776
215 3 1.04392 37.399 44.9331
216 1 3.89426 35.8523 41.8431
217 3 0.831912 35.0315 38.471
218 3 -0.0584499 30.9605 35.6346
219 3 -2.34738 32.7803 32.0792
220 3 0.000952189 32.5006 36.0289
221 3 3.82391 31.5756 34.222
222 3 7.00027 34.4855 35.5254
223 3 9.63303 38.6962 35.154
224 1 6.34612 37.7295 37.7369
225 3 6.9963 35.5428 34.1459
226 3 3.18217 35.998 37.4007
227 3 6.65719 35.3959 39.9977
228 3 8.37352 34.5921 36.0589
229 3 8.98177 33.5632 31.6601
230 3 4.53495 35.7634 31.8508
231 3 4.7959 36.3438 35.7183
232 2 2.77127 36.5828 31.6336
233 3 4.95688 37.9714 28.148
234 3 2.00989 36.3926 31.0567
235 3 4.57593 33.3601 28.2579
236 3 6.62059 32.2136 24.3528
237 3 2.46239 32.9375 25.766
238 3 0.537836 37.0011 25.6661
239 3 2.46929 41.4765 26.0492
240 2 6.61472 39.5049 26.5012
241 3 9.2652 43.1792 26.8915
242 3 7.63507 39.8695 28.6263
243 3 5.11368 38.2598 31.9983
244 3 4.07524 34.9612 34.6423
245 3 6.4526 39.4764 35.806
246 3 10.0127 39.5642 33.8805
247 3 9.79512 39.1415 38.0954
248 2 8.24508 39.6178 42.3063
249 3 5.94782 35.9184 42.6187
250 3 6.81134 40.3689 40.2535
251 3 18.5936 47.4188 12.6416
252 3 14.2728 46.6432 12.6992
253 3 18.182 44.2859 13.5777
254 3 21.8249 41.8782 14.7636
255 3 24.8197 43.9678 12.7455
256 3 22.5418 46.8037 15.9841
257 3 18.2393 45.0154 14.3416
258 1 14.4093 47.21 14.241
259 3 15.9709 46.4178 10.2089
260 3 11.3039 46.4652 11.6952
261 3 8.5486 46.7104 15.5534
262 3 11.1975 48.7875 12.2487
263 3 10.33 2.57657 14.6929
264 3 6.76597 49.2232 14.6493
265 3 9.7822 48.3977 18.8538
266 1 9.72865 49.2166 23.3398
267 3 5.9275 49.8253 22.3738
268 3 3.82832 0.0867135 18.3953
269 3 2.49565 46.7174 20.8662
270 3 2.78354 49.0982 17.655
271 3 2.11254 3.57545 18.613
272 3 0.964684 3.70435 23.7075
273 3 -2.13913 0.3343 23.4791
274 1 0.87407 47.4759 23.2688
275 3 -3.73284 47.8432 25.8305
276 3 -5.00607 0.211287 22.4416
277 3 -8.50189 47.236 22.9342
278 3 -6.49862 44.0332 20.2749
279 3 -2.27738 46.4612 19.4938
280 3 1.22999 47.6254 22.2064
281 3 -2.03723 0.741295 22.4955
282 2 -6.16478 49.9965 21.5877
283 3 -3.38107 48.299 24.1939
284 3 -2.7874 44.2283 23.1105
285 3 -7.24155 44.9291 22.365
286 3 -6.83572 41.7111 24.7141
287 3 -9.0435 38.7868 21.4391
288 3 -11.4612 42.7139 20.8732
289 3 -11.0088 40.6241 17.4412
290 2 -13.2969 42.1742 20.9484
291 3 -10.8339 41.797 24.5675
292 3 -8.37464 41.2527 28.9661
293 3 -6.46447 43.0087 31.9943
294 3 -3.29477 43.7233 28.1863
295 3 -4.35438 41.6301 24.2619
296 3 -6.7906 43.8991 26.5051
297 3 -5.29502 48.0563 24.5928
298 2 -5.33878 44.5098 27.8464
299 3 -5.1345 48.2478 30.3205
300 3 -1.52504 49.6181 28.7911
301 3 -1.74578 15.2552 17.461
302 3 -2.53029 13.6086 20.8629
303 3 -1.10221 10.837 16.7468
304 3 2.28604 9.21227 18.7298
305 3 2.51514 12.9637 17.0513
306 3 4.00959 16.9966 15.8459
307 3 1.03123 13.6725 15.3844
308 1 -1.54838 14.9467 18.4886
309 3 3.18749 14.8675 20.8872
310 3 7.1494 16.9112 18.6909
311 3 4.00704 15.3123 21.1427
312 3 3.02329 16.1748 16.2764
313 3 0.653729 19.985 17.5178
314 3 -0.700337 17.3562 21.0373
315 3 -4.91095 19.3391 22.8218
316 1 -2.46181 15.4782 23.2066
317 3 -1.23646 13.4234 19.6459
318 3 -1.96774 16.82 22.8134
319 3 -4.45537 15.7959 26.5967
320 3 -2.30566 12.905 28.0295
321 3 -4.62838 11.913 31.4214
322 3 -0.794862 13.5369 31.1251
323 3 -0.527614 17.2687 28.4864
324 1 0.0232831 20.8525 31.1118
325 3 -2.22155 16.8993 31.2094
326 3 -3.0613 15.5618 27.3507
327 3 -3.14914 14.8761 22.8587
328 3 -0.516904 13.3107 19.9573
329 3 3.25699 11.302 22.1791
330 3 0.599293 14.9221 21.8854
331 3 -1.63052 13.9887 18.2145
332 2 1.33836 11.1879 19.2145
333 3 1.59974 15.1376 19.2343
334 3 0.414205 18.2068 16.0461
335 3 -1.72494 14.8275 19.4826
336 3 -5.3157 17.2297 18.3877
337 3 -8.9945 20.2175 18.2049
338 3 -6.04874 24.0747 15.8693
339 3 -5.56489 22.6696 19.6309
340 2 -7.16978 19.5632 16.5983
341 3 -8.71173 23.8873 17.066
342 3 -7.67418 26.3265 12.725
343 3 -3.86492 23.8368 13.5354
344 3 -6.65721 22.0951 10.5683
345 3 -8.41677 23.668 14.1055
346 3 -7.02951 21.5629 10.0159
347 3 -5.3731 25.0334 7.80101
348 2 -0.86841 24.3611 6.94454
349 3 0.49746 24.7271 10.9352
350 3 1.10177 27.6476 7.11451
351 3 -26.0588 10.5215 16.5823
352 3 -21.5669 9.12533 15.5941
353 3 -17.7501 11.8142 14.1045
354 3 -16.5956 11.882 18.6442
355 3 -20.8185 12.064 20.3866
356 3 -24.8019 11.7443 18.8804
357 3 -20.343 11.6 19.9993
358 1 -22.2747 15.5039 22.32
359 3 -20.7937 11.3955 22.8507
360 3 -21.4773 12.654 18.1452
361 3 -20.0074 10.4411 14.1749
362 3 -16.5489 8.00324 13.5077
363 3 -12.812 7.65976 14.2927
364 3 -10.4952 8.24595 10.6719
365 3 -8.78072 6.54266 6.46787
366 1 -12.1774 9.48412 7.13492
367 3 -15.1004 7.31125 4.33287
368 3 -14.0949 9.73532 0.769315
369 3 -17.2954 7.39266 3.35466
370 3 -14.4141 4.49242 4.5237
371 3 -12.0087 4.03488 8.7682
372 3 -11.3797 7.99974 7.62565
373 3 -13.6397 7.4549 3.83655
374 1 -17.6588 7.62659 4.51236
375 3 -19.3364 3.73776 2.64723
376 3 -17.8884 7.00855 5.23784
377 3 -21.4803 4.35977 4.65735
378 3 -20.0205 6.18959 8.49753
379 3 -22.9653 2.56321 6.97822
380 3 -19.1675 5.14375 8.05084
381 3 -14.393 5.63578 8.78572
382 2 -11.6995 6.99698 11.5493
383 3 -12.5626 10.1957 14.4519
384 3 -9.14835 7.81599 16.1696
385 3 -10.3518 10.3018 12.8581
386 3 -8.25877 7.05169 14.5999
387 3 -4.32549 7.29618 11.3961
388 3 -3.68592 7.02078 15.5148
389 3 0.745517 6.28062 16.1933
390 2 -3.09884 3.86399 14.5578
391 3 -2.82936 8.39185 14.7911
392 3 -4.76901 9.33621 10.4957
393 3 -8.20211 7.8319 7.89163
394 3 -8.67205 10.7489 4.70732
395 3 -9.56865 11.5986 0.840989
396 3 -6.50589 11.8842 4.22806
397 3 -3.04502 11.83 6.75259
398 2 -3.10908 15.5124 6.00365
399 3 0.789897 12.7184 4.3719
400 3 -0.468436 8.804 2.37573
401 3 10.1049 45.1377 35.8783
402 3 5.59885 47.1089 36.9785
403 3 4.00613 44.9642 40.0431
404 3 2.65837 45.1866 44.0687
405 3 5.70629 45.7138 41.207
406 3 2.47923 46.2943 37.8805
407 3 6.34262 43.5216 38.4298
408 1 4.33316 40.4116 35.8543
409 3 4.69382 43.3851 39.5292
410 3 6.95709 40.1699 40.7314
411 3 3.39292 38.1736 39.1805
412 3 1.398 40.0903 43.0018
413 3 0.404158 37.9513 38.942
414 3 -2.74259 36.9733 35.8144
415 3 0.0638306 39.5862 34.0312
416 1 2.85082 36.8438 31.1609
417 3 1.84688 33.294 34.4597
418 3 0.578089 34.8333 38.6792
419 3 4.07436 33.4254 40.8024
420 3 4.52279 37.6712 38.6618
421 3 1.30017 37.2684 40.9461
422 3 3.45109 39.2219 44.4274
423 3 2.68747 35.4801 47.1952
424 1 7.26907 35.9514 46.6471
425 3 4.19698 33.5949 48.4359
426 3 0.671926 37.1893 48.5079
427 3 0.347649 39.0113 2.90919
428 3 -2.87223 41.5194 3.73777
429 3 -6.91545 41.8685 2.43942
430 3 -2.79309 40.7823 1.04518
431 3 -1.13891 35.8947 1.16292
432 2 -4.21314 34.8815 47.7796
433 3 -6.63279 32.1893 44.6546
434 3 -10.9799 29.8541 45.0948
435 3 -13.0233 34.1457 45.913
436 3 -13.5689 38.8189 46.8065
437 3 -14.8588 40.1908 42.5467
438 3 -13.8083 37.0032 39.5865
439 3 -10.4327 39.5074 38.3097
440 2 -7.59011 36.1946 37.8578
441 3 -4.57419 38.1422 35.1711
442 3 -3.79485 42.6905 36.5342
443 3 -4.58024 41.2702 32.1192
444 3 -4.68703 46.2283 32.2828
445 3 -5.46599 43.2517 28.999
446 3 -7.62034 43.3329 24.9573
447 3 -3.30779 45.1136 23.5194
448 2 -6.91322 44.1352 23.681
449 3 -5.78389 42.4331 19.8775
450 3 -4.75537 45.0244 16.4145
451 3 -0.0681973 17.4741 48.5417
452 3 0.759402 16.4762 2.98687
453 3 0.674674 11.828 2.60582
454 3 -0.884578 15.3444 4.58421
455 3 2.20505 13.2503 6.12549
456 3 3.90504 15.0662 10.1695
457 3 7.67433 13.567 8.37151
458 1 10.4126 10.4897 10.7565
459 3 14.4836 10.2047 11.9905
460 3 15.625 14.5465 10.2084
461 3 17.217 18.7886 9.73265
462 3 16.6009 15.0629 12.8399
463 3 13.8819 14.7757 9.67506
464 3 11.7221 18.2505 12.5395
465 3 9.88281 19.1288 8.63486
466 1 6.59049 16.9005 7.37176
467 3 10.831 18.7736 6.71746
468 3 10.6116 16.4356 10.8055
469 3 11.6966 20.6891 10.7154
470 3 9.13747 19.4814 14.5501
471 3 9.08776 14.9432 14.5543
472 3 4.67096 14.5656 16.2028
473 3 8.84871 16.0947 14.5113
474 1 11.4544 12.7072 16.295
475 3 8.24409 14.1782 18.3609
476 3 8.88271 15.9735 22.2809
477 3 9.12796 11.667 22.2978
478 3 6.91331 13.6677 25.343
479 3 5.43823 16.8917 23.5356
480 3 3.2312 12.9218 22.3791
481 3 5.69436 16.8039 23.0036
482 2 3.26878 15.3341 26.7106
483 3 0.553292 14.9802 30.1941
484 3 0.844967 14.216 34.7292
485 3 5.31017 13.2335 33.8064
486 3 8.09264 16.6258 32.5004
487 3 5.62184 13.7627 29.1521
488 3 3.07161 14.9052 25.4372
489 3 5.86599 16.1908 22.7689
490 2 9.60103 17.5025 25.1016
491 3 10.4171 22.1838 24.9952
492 3 14.9192 19.5023 25.8604
493 3 17.8986 18.2406 29.1363
494 3 18.775 17.9184 34.1731
495 3 21.3191 20.4986 32.0638
496 3 17.6753 19.8308 34.6208
497 3 13.4463 19.5642 35.8236
498 2 16.6912 22.6546 34.3093
499 3 14.3294 19.5186 31.8095
500 3 11.7582 16.572 31.364
501 3 -8.15078 14.7642 4.46032
502 3 -10.0919 17.1025 7.90594
503 3 -10.6892 12.906 6.9995
504 3 -10.4165 16.3119 4.09965
505 3 -10.2874 14.3689 8.04144
506 3 -7.90899 15.7754 4.12591
507 3 -3.07284 16.9047 4.27085
508 1 -7.44551 15.4387 3.98914
509 3 -10.4585 14.4982 1.10758
510 3 -8.65256 10.0549 49.5781
511 3 -4.78483 8.84776 1.22322
512 3 -9.02845 10.0423 49.5851
513 3 -7.45175 14.0346 47.6994
514 3 -3.60709 12.6646 0.0137638
515 3 -2.13357 11.5498 4.20074
516 1 -3.21985 15.4343 5.66353
517 3 1.46161 16.6049 5.0797
518 3 0.0764301 19.6089 6.38608
519 3 -4.12345 21.2148 6.76849
520 3 -0.0486146 20.1239 7.26748
521 3 -2.47884 24.0062 6.98746
522 3 -3.46214 27.0617 10.1082
523 3 -0.758771 23.9868 8.99091
524 1 -1.39134 23.7446 13.726
525 3 -4.39935 20.8757 15.7019
526 3 -0.81648 21.764 14.2779
527 3 -0.657961 19.8029 18.2216
528 3 2.3505 17.088 16.1073
529 3 -1.3108 17.1131 19.9391
530 3 1.59416 15.0895 17.064
531 3 1.56395 11.255 16.8532
532 2 1.21495 6.55048 17.6238
533 3 -0.0598835 5.56121 13.6548
534 3 0.375863 7.88226 10.3267
535 3 4.25259 4.73447 10.2051
536 3 5.86783 8.63189 10.8181
537 3 7.41122 7.1288 14.6937
538 3 9.44886 10.5754 12.5692
539 3 6.46449 12.8494 15.1867
540 2 7.08771 13.6695 19.4505
541 3 5.36656 12.385 16.4526
542 3 5.29229 8.29675 14.8086
543 3 4.25344 5.21133 11.7655
544 3 8.06127 2.44802 12.5969
545 3 5.21214 1.55251 10.2466
546 3 5.27877 2.34815 5.45267
547 3 8.36083 3.71269 3.12718
548 2 6.29917 0.945846 6.71527
549 3 3.53232 47.8588 4.49354
550 3 4.49543 1.24303 1.31167
551 3 -18.5584 8.27955 28.0845
552 3 -16.4032 9.46606 24.013
553 3 -15.367 5.6272 20.5689
554 3 -16.7848 1.66777 20.1852
555 3 -19.3354 49.7459 23.4304
556 3 -22.6638 49.2526 20.5868
557 3 -19.9732 2.06103 21.8359
558 1 -23.3352 49.0632 21.6298
559 3 -26.7494 48.07 24.3275
560 3 -29.0082 0.765796 27.1332
561 3 -27.972 46.244 26.3534
562 3 -24.7546 45.6676 24.0715
563 3 -23.872 45.9205 19.3381
564 3 -28.2396 48.0392 19.6343
565 3 -28.1195 44.6027 17.1514
566 1 -29.6258 40.0823 16.5372
567 3 -30.8442 36.5486 18.9138
568 3 -32.7807 39.3958 21.6027
569 3 -33.0998 35.6545 23.8802
570 3 -29.0386 37.3913 21.457
571 3 -25.8134 35.2073 22.3525
572 3 -24.5868 37.7531 26.1829
573 3 -22.2992 36.8749 22.5878
574 1 -20.4063 40.4627 20.1538
575 3 -23.3685 41.3866 17.1175
576 3 -25.0553 43.8899 18.4386
577 3 -26.422 47.9257 16.8235
578 3 -29.9445 48.0649 19.2605
579 3 -26.0116 49.4336 16.0536
580 3 -26.8806 46.2659 19.2027
581 3 -26.2302 45.9808 23.0743
582 2 -23.555 48.8604 21.7877
583 3 -23.1107 2.11421 25.2093
584 3 -23.5359 47.8906 26.6575
585 3 -24.2468 1.61172 24.5545
586 3 -21.0571 3.43711 22.3165
587 3 -18.1402 7.03862 21.6364
588 3 -22.0326 9.27608 21.1118
589 3 -22.2031 13.1032 18.3635
590 2 -22.1476 15.7454 22.1569
591 3 -23.4789 18.2128 25.5699
592 3 -21.1353 19.2394 29.385
593 3 -17.205 17.6451 26.9117
594 3 -14.1357 17.6293 24.1446
595 3 -18.0096 19.4363 24.2767
596 3 -20.7278 15.8564 22.9959
597 3 -16.4415 14.5951 22.1771
598 2 -12.5651 15.4066 23.2055
599 3 -13.9598 19.6211 23.2248
600 3 -9.72542 16.5712 22.2772
601 3 14.5258 34.0938 3.19178
602 3 14.8355 37.9228 4.58832
603 3 12.7197 35.634 7.49898
604 3 13.8853 36.5293 11.6808
605 3 13.5974 36.8796 6.82736
606 3 9.55104 36.4053 5.4713
607 3 9.58681 34.5567 1.02176
608 1 11.151 37.8525 3.92035
609 3 14.7714 39.1247 0.837674
610 3 10.323 39.0826 1.52013
611 3 12.7337 37.656 48.417
612 3 9.92151 39.4072 1.41201
613 3 9.63719 37.919 46.8943
614 3 11.7981 37.3512 42.8817
615 3 10.3096 39.5306 46.7122
616 1 10.5647 39.6176 1.01301
617 3 10.3558 36.9987 4.46734
618 3 8.3859 34.2393 1.26116
619 3 7.72451 31.1213 48.3715
620 3 8.98598 30.6944 2.27431
621 3 5.58749 27.465 3.67008
622 3 2.20934 30.1659 2.93991
623 3 3.14174 31.0109 6.98983
624 1 4.43851 30.5048 10.9997
625 3 3.61104 26.5534 9.96881
626 3 3.52034 22.0137 12.0834
627 3 2.0996 17.9435 12.3068
628 3 1.73689 15.7663 8.37139
629 3 0.445815 19.3728 10.5342
630 3 3.13093 16.243 10.6098
631 3 -1.494 15.6182 9.00442
632 2 -5.65705 14.3653 10.8245
633 3 -1.95947 14.4483 9.36897
634 3 -1.33889 11.4341 12.9731
635 3 -3.37692 15.8381 13.7293
636 3 -2.63462 16.6338 17.8809
637 3 -7.53107 16.929 17.2966
638 3 -5.44029 15.5791 20.6092
639 3 -1.15767 17.2998 22.3766
640 2 -1.29817 14.7118 18.3762
641 3 -1.96261 12.8167 22.5933
642 3 1.42115 12.3402 20.0264
643 3 5.23322 12.6514 17.5355
644 3 4.11686 15.8386 15.969
645 3 3.48422 18.6313 13.2563
646 3 6.36355 15.3419 14.2751
647 3 7.10763 13.8958 9.71958
648 2 10.2817 10.6848 10.3989
649 3 11.2567 11.7045 14.8733
650 3 8.3306 11.2588 17.927
651 3 -0.577579 23.4088 43.2411
652 3 -3.1542 24.0523 46.6659
653 3 0.106397 21.9256 44.7314
654 3 3.91546 23.4351 46.9929
655 3 7.87331 25.2235 49.0046
656 3 7.09102 29.3056 47.4384
657 3 10.8343 31.7831 46.5879
658 1 13.5329 29.4993 48.7895
659 3 15.1494 30.5486 3.14929
660 3 14.7114 34.9623 2.52374
661 3 13.475 30.8763 3.57163
662 3 12.555 33.1342 49.7238
663 3 13.9561 34.9539 46.0595
664 3 12.6571 38.6018 44.3611
665 3 11.848 36.225 41.1139
666 1 8.12784 39.1742 42.6025
667 3 8.88463 43.3487 43.6641
668 3 7.2468 45.5575 46.9371
669 3 3.96266 47.409 44.6851
670 3 4.18384 47.6664 40.1771
671 3 7.41595 45.6995 42.4318
672 3 5.27106 49.3726 42.0154
673 3 8.39786 3.22145 41.7276
674 1 3.58635 3.60343 42.6667
675 3 0.758797 3.18337 38.599
676 3 3.05027 49.1174 39.8878
677 3 1.34803 2.70125 37.8185
678 3 0.132272 48.8719 38.3009
679 3 3.12406 45.7966 37.9672
680 3 6.53128 45.7989 39.6293
681 3 7.80968 42.3791 38.4794
682 2 9.26615 42.2395 34.5058
683 3 7.00286 40.0998 37.7312
684 3 8.42093 44.2353 39.393
685 3 5.63083 43.6582 37.1648
686 3 1.42546 41.7696 36.6079
687 3 -3.29043 40.8364 39.3093
688 3 -6.85652 39.2554 40.2694
689 3 -2.84136 39.708 42.6048
690 2 -3.66851 38.4982 38.2534
691 3 -8.08995 37.6318 38.8514
692 3 -9.88392 39.2707 42.7546
693 3 -9.95696 35.0963 43.5907
694 3 -9.99858 35.7813 39.2367
695 3 -11.0436 31.6011 36.5144
696 3 -11.0626 32.6677 31.605
697 3 -12.3509 28.0782 30.3144
698 2 -11.9846 31.4525 32.8698
699 3 -14.0669 29.5058 36.7257
700 3 -14.156 33.5214 35.2975
701 3 15.7679 31.4598 20.4933
702 3 11.5156 32.5898 20.1784
703 3 8.06071 34.5688 16.8552
704 3 7.16815 34.3363 21.5077
705 3 5.02923 37.9388 22.9976
706 3 4.1025 41.0577 26.0908
707 3 6.18109 43.7309 28.998
708 1 7.22459 39.7456 26.2054
709 3 3.28375 40.3922 23.5024
710 3 -0.637405 41.7223 20.5263
711 3 -3.12566 38.06 20.388
712 3 -0.649346 37.7415 24.5327
713 3 -0.368641 39.73 28.8412
714 3 4.60682 40.2431 27.6911
715 3 5.89975 41.4383 31.6495
716 1 9.58349 41.9837 34.4494
717 3 8.77692 41.0675 30.2255
718 3 5.08225 41.1544 31.8142
719 3 4.42706 45.3473 32.0785
720 3 7.9396 47.7183 34.4424
721 3 9.87386 47.2023 30.791
722 3 11.8391 49.7631 27.7964
723 3 12.0635 2.10416 23.4782
724 1 7.83512 2.00027 24.741
725 3 5.67789 4.55118 21.8753
726 3 6.44376 8.90522 22.9919
727 3 4.27031 10.8475 26.126
728 3 4.19276 14.5157 28.7203
729 3 7.39662 13.2366 25.953
730 3 11.8314 13.5977 27.0063
731 3 13.3693 17.1724 28.8143
732 2 16.9708 18.8548 25.9856
733 3 21.3794 17.7107 26.1231
734 3 17.7506 15.9815 23.6023
735 3 18.693 13.0352 19.9595
736 3 22.1432 12.4278 16.7241
737 3 18.7901 10.2142 14.8336
738 3 20.8874 12.9114 11.8455
739 3 22.9595 11.9953 8.10209
740 2 27.4562 11.2933 10.0655
741 3 25.964 7.10275 7.94159
742 3 29.7235 9.46658 5.63844
743 3 27.896 7.43696 9.3481
744 3 29.3496 11.0357 7.61053
745 3 27.8101 7.85283 9.97646
746 3 31.8062 9.76096 11.752
747 3 35.3511 11.4717 14.1638
748 2 34.0756 11.5111 9.53755
749 3 32.3629 9.87275 13.0279
750 3 34.6771 9.88113 16.8584
751 3 6.96773 23.5794 18.9285
752 3 5.67388 20.1023 21.218
753 3 6.1688 18.5651 16.9694
754 3 8.2531 16.9813 20.8477
755 3 7.69403 12.9762 18.5242
756 3 5.67814 15.2621 22.1769
757 3 2.25807 13.9108 19.4617
758 1 6.81864 14.123 19.7314
759 3 4.15114 10.9642 22.1619
760 3 5.00863 6.93147 21.2536
761 3 7.04156 8.6563 18.0758
762 3 3.92603 6.2695 20.0163
763 3 6.45222 2.62165 22.11
764 3 3.52596 5.65306 21.4266
765 3 3.72868 8.21189 18.072
766 1 6.96902 9.16772 20.5376
767 3 5.81795 5.13525 19.789
768 3 9.64306 5.6318 18.2307
769 3 13.3764 3.47672 16.8845
770 3 12.615 49.7786 14.2852
771 3 14.9744 48.9958 17.8232
772 3 10.5858 49.5192 17.0275
773 3 9.12739 47.0939 20.5192
774 1 7.35792 44.4603 17.6248
775 3 7.0134 48.835 19.3021
776 3 2.55106 0.568559 18.9703
777 3 5.58531 3.64074 20.3184
778 3 1.90213 5.65551 19.3443
779 3 0.340285 3.94939 22.8926
780 3 -2.81425 6.31612 20.6599
781 3 -4.22204 5.48833 16.4113
782 2 -8.31893 2.16811 18.4513
783 3 -5.89166 5.7824 19.5902
784 3 -5.46179 3.94018 23.6473
785 3 -9.26834 3.95458 21.5514
786 3 -13.0714 4.98659 19.7963
787 3 -12.0538 4.54165 24.0279
788 3 -13.912 8.0793 22.184
789 3 -9.51762 7.77153 23.6653
790 2 -8.10382 3.88626 24.1006
791 3 -3.77311 4.87404 22.4336
792 3 -6.51677 6.83636 20.3723
793 3 -3.14383 8.59817 18.6474
794 3 -3.48019 3.28075 19.6159
795 3 -0.362703 4.21958 15.3263
796 3 4.10143 2.52369 14.5844
797 3 5.66273 6.55319 16.6882
798 2 9.04668 4.29545 18.5948
799 3 8.42255 1.90077 14.8314
800 3 8.28099 4.54966 18.6209
801 3 25.6325 20.9386 23.6398
802 3 23.2218 19.45 26.1124
803 3 19.9682 15.8934 27.3486
804 3 16.8289 18.4512 30.1411
805 3 18.9502 21.8595 29.3367
806 3 15.3378 22.8979 29.0451
807 3 19.6069 23.858 30.1282
808 1 16.1959 22.8769 34.2319
809 3 12.2357 21.9847 31.8086
810 3 11.8761 18.544 28.695
811 3 10.8954 22.8845 28.4459
812 3 12.451 22.06 32.7612
813 3 8.23098 22.9256 30.9581
814 3 5.68779 24.8552 27.0331
815 3 5.65127 20.3172 25.4459
816 1 1.98747 21.5155 26.7481
817 3 2.9253 25.7656 29.0715
818 3 1.63875 21.9139 27.3116
819 3 0.0999298 20.0926 23.4896
820 3 -1.35878 15.9517 23.4041
821 3 -1.16017 15.3181 19.3293
822 3 -0.704218 13.9126 14.8679
823 3 2.42262 17.366 17.3744
824 1 2.24314 18.4389 21.7029
825 3 2.77405 21.1382 25.0922
826 3 1.22722 19.6478 20.8639
827 3 5.37779 16.4123 20.856
828 3 7.84856 20.1485 21.2931
829 3 8.38281 22.6868 17.6503
830 3 11.5318 22.6273 21.8971
831 3 11.1206 19.0479 19.1307
832 2 8.56811 22.7717 18.4225
833 3 5.36681 26.3801 18.968
834 3 5.93499 23.5954 15.9137
835 3 3.74421 20.136 18.1847
836 3 7.03849 18.5472 20.5626
837 3 3.13562 18.0488 19.1162
838 3 1.77094 18.1499 14.8486
839 3 -2.59902 17.5309 16.8149
840 2 -5.18029 19.2029 20.1142
841 3 -5.56589 15.2358 21.8344
842 3 -0.806521 15.8041 21.8807
843 3 0.923208 18.6992 25.3119
844 3 1.65588 21.8589 27.6704
845 3 3.74588 17.8537 28.6004
846 3 6.02003 14.2859 28.0276
847 3 6.56742 11.1091 24.837
848 2 11.3242 11.4462 24.4131
849 3 13.8017 8.59898 22.1794
850 3 11.8299 9.10251 25.9276
851 3 7.56398 45.4887 4.77595
852 3 5.99158 41.6281 6.30676
853 3 2.71724 40.2076 9.31821
854 3 -0.0024337 38.0004 11.7526
855 3 0.845849 41.7882 13.2021
856 3 4.07349 39.7208 10.509
857 3 3.63133 37.0081 14.271
858 1 1.1418 37.419 10.921
859 3 1.33003 32.9555 12.0395
860 3 4.93305 30.0734 12.5957
861 3 2.26481 30.2665 15.7515
862 3 4.302 25.9464 16.7394
863 3 7.32915 22.7024 18.2611
864 3 8.31965 24.1799 22.3982
865 3 10.1502 21.6814 24.9745
866 1 7.30839 24.7123 25.9541
867 3 7.39996 21.6744 21.8452
868 3 12.0463 20.2142 21.2348
869 3 16.1319 22.796 21.464
870 3 18.0802 25.6971 18.7673
871 3 17.7286 27.0109 14.6766
872 3 14.681 29.368 17.2207
873 3 14.9844 27.7639 21.339
874 1 18.8528 26.545 23.4857
875 3 18.2252 27.4192 19.4512
876 3 14.143 26.4107 17.9568
877 3 10.3654 23.8192 16.6105
878 3 7.9262 26.6976 19.0915
879 3 10.6781 26.575 15.2271
880 3 7.83313 29.969 16.9558
881 3 7.20949 31.7968 12.8272
882 2 5.75655 27.1924 12.0064
883 3 2.36705 28.5536 8.86786
884 3 4.63937 25.4153 11.587
885 3 3.82897 22.3395 9.20649
886 3 8.52102 22.9012 9.36815
887 3 11.8843 21.968 12.6961
888 3 14.2567 18.1549 11.9669
889 3 10.5718 18.9025 9.16297
890 2 7.47798 21.3422 9.85371
891 3 10.0516 24.6376 9.76169
892 3 13.3049 23.5372 8.39335
893 3 12.3632 20.0168 11.1238
894 3 11.6845 20.6267 6.37005
895 3 10.3198 22.837 8.93374
896 3 10.1645 19.4754 6.40664
897 3 9.75107 14.8425 5.62663
898 2 6.77615 16.7071 6.88577
899 3 10.3742 13.7154 5.08312
900 3 12.1648 15.8605 8.62913
901 3 -11.3595 12.4859 21.899
902 3 -12.4965 10.7736 17.4433
903 3 -12.143 6.50404 19.2901
904 3 -9.1499 9.48448 18.5829
905 3 -9.55786 12.6017 15.9363
906 3 -6.40189 12.8774 12.7076
907 3 -5.19853 15.5712 16.3016
908 1 -7.162 19.7235 16.8278
909 3 -10.3393 17.9551 20.2978
910 3 -13.5244 14.1627 22.0897
911 3 -15.4991 17.8985 22.8008
912 3 -14.9435 13.8018 24.9693
913 3 -13.7418 9.67811 23.38
914 3 -9.58983 8.21913 21.324
915 3 -8.85197 4.50023 19.6495
916 1 -8.07883 4.0026 24.6286
917 3 -8.94977 5.05498 28.819
918 3 -7.16349 0.116675 27.651
919 3 -2.52114 48.7022 27.8757
920 3 2.10743 49.1383 27.7063
921 3 6.26284 48.2344 27.7394
922 3 3.90983 49.1219 31.404
923 3 5.75237 44.5393 33.0248
924 1 6.56683 39.9331 33.0175
925 3 5.38776 43.3435 36.5583
926 3 2.18664 40.8513 36.7023
927 3 -1.54102 43.5456 37.55
928 3 2.8699 42.382 37.5679
929 3 0.547768 39.5542 38.5584
930 3 -1.75844 35.2601 38.2669
931 3 1.6932 37.9217 37.8712
932 2 4.81822 40.402 36.0664
933 3 2.85682 44.1166 36.8537
934 3 3.2074 46.9506 40.511
935 3 6.42133 44.5153 37.8836
936 3 7.49771 41.1142 34.4917
937 3 8.36281 45.4498 35.477
938 3 10.1636 49.7976 35.9954
939 3 9.87159 4.04232 37.8792
940 2 11.3325 8.5 37.9486
941 3 8.32819 8.39955 34.565
942 3 9.44599 12.5286 32.6515
943 3 9.42535 10.0538 28.6071
944 3 11.6485 9.23019 24.2495
945 3 12.8625 13.3396 21.561
946 3 15.2304 12.2975 18.0876
947 3 12.2676 11.5617 14.4824
948 2 16.2573 10.07 14.4685
949 3 14.35 12.7435 17.8802
950 3 11.1812 14.1303 17.0243
951 3 29.9169 35.3153 48.1986
952 3 30.9055 30.8254 49.6852
953 3 32.8449 28.6892 45.7312
954 3 33.9537 31.7788 42.5961
955 3 34.0389 27.252 42.6741
956 3 29.5583 27.8679 41.2642
957 3 31.4656 29.2003 44.8961
958 1 35.4228 26.9978 46.5815
959 3 38.2462 25.8172 42.7093
960 3 37.0235 26.3332 38.6112
961 3 32.3713 26.6064 40.3734
962 3 34.889 28.0373 43.8981
963 3 31.2578 25.6164 45.1719
964 3 30.5935 29.8643 44.5584
965 3 31.3127 25.1417 45.9236
966 1 34.4069 27.4713 43.2756
967 3 32.9779 24.0976 40.74
968 3 31.2014 22.7611 36.9046
969 3 30.6305 26.4601 33.2048
970 3 34.7781 24.0842 33.8934
971 3 31.5304 23.7273 36.7922
972 3 30.9623 27.2462 39.8721
973 3 32.2103 28.2395 44.1106
974 1 31.6725 28.728 48.953
975 3 35.5308 26.558 0.318759
976 3 37.1594 22.2534 2.6481
977 3 34.1253 19.4931 1.70534
978 3 35.5899 15.3158 2.38891
979 3 33.004 12.9869 49.3107
980 3 36.0917 14.5461 2.97287
981 3 32.7221 12.0542 4.61985
982 2 31.3491 7.8532 3.41934
983 3 32.2037 10.9784 7.56225
984 3 30.4167 14.6443 10.4928
985 3 28.0491 15.4822 6.93416
986 3 30.1164 19.3143 7.03744
987 3 27.7976 20.7205 10.6823
988 3 29.1989 22.4994 7.07787